1.028570226800000142e+01 -2.646977960169688560e-23 0.000000000000000000e+00 3.360002844359990019e-07 1.028572102199999527e+01 0.000000000000000000e+00 0.000000000000000000e+00 0.000000000000000000e+00 1.025877151499999940e+01
1.028570226800000142e+01 -2.646977960169688560e-23 0.000000000000000000e+00 3.360002844359990019e-07 1.028572102199999527e+01 0.000000000000000000e+00 0.000000000000000000e+00 0.000000000000000000e+00 1.025877151499999940e+01
1.028570226800000142e+01 -2.646977960169688560e-23 0.000000000000000000e+00 3.360002844359990019e-07 1.028572102199999527e+01 0.000000000000000000e+00 0.000000000000000000e+00 0.000000000000000000e+00 1.025877151499999940e+01
1.028570226800000142e+01 -2.646977960169688560e-23 0.000000000000000000e+00 3.360002844359990019e-07 1.028572102199999527e+01 0.000000000000000000e+00 0.000000000000000000e+00 0.000000000000000000e+00 1.025877151499999940e+01
1.028570226800000142e+01 -2.646977960169688560e-23 0.000000000000000000e+00 3.360002844359990019e-07 1.028572102199999527e+01 0.000000000000000000e+00 0.000000000000000000e+00 0.000000000000000000e+00 1.025877151499999940e+01
1.008727580799999934e+01 0.000000000000000000e+00 0.000000000000000000e+00 -1.219809000000000084e-03 1.039483704899999950e+01 0.000000000000000000e+00 -8.042801199999999318e-02 -9.870851099999999878e-02 1.021588623200000079e+01
1.008727580799999934e+01 0.000000000000000000e+00 0.000000000000000000e+00 -1.219809000000000084e-03 1.039483704899999950e+01 0.000000000000000000e+00 -8.042801199999999318e-02 -9.870851099999999878e-02 1.021588623200000079e+01
1.008727580799999934e+01 0.000000000000000000e+00 0.000000000000000000e+00 -1.219809000000000084e-03 1.039483704899999950e+01 0.000000000000000000e+00 -8.042801199999999318e-02 -9.870851099999999878e-02 1.021588623200000079e+01
1.008727580799999934e+01 0.000000000000000000e+00 0.000000000000000000e+00 -1.219809000000000084e-03 1.039483704899999950e+01 0.000000000000000000e+00 -8.042801199999999318e-02 -9.870851099999999878e-02 1.021588623200000079e+01
1.008727580799999934e+01 0.000000000000000000e+00 0.000000000000000000e+00 -1.219809000000000084e-03 1.039483704899999950e+01 0.000000000000000000e+00 -8.042801199999999318e-02 -9.870851099999999878e-02 1.021588623200000079e+01
1.023596520799999965e+01 0.000000000000000000e+00 0.000000000000000000e+00 -5.465549100000000049e-02 1.001363848199999929e+01 0.000000000000000000e+00 -1.282370610000000133e-01 1.926086369999999992e-01 1.038458178399999987e+01
1.023596520799999965e+01 0.000000000000000000e+00 0.000000000000000000e+00 -5.465549100000000049e-02 1.001363848199999929e+01 0.000000000000000000e+00 -1.282370610000000133e-01 1.926086369999999992e-01 1.038458178399999987e+01
1.023596520799999965e+01 0.000000000000000000e+00 0.000000000000000000e+00 -5.465549100000000049e-02 1.001363848199999929e+01 0.000000000000000000e+00 -1.282370610000000133e-01 1.926086369999999992e-01 1.038458178399999987e+01
1.023596520799999965e+01 0.000000000000000000e+00 0.000000000000000000e+00 -5.465549100000000049e-02 1.001363848199999929e+01 0.000000000000000000e+00 -1.282370610000000133e-01 1.926086369999999992e-01 1.038458178399999987e+01
1.023596520799999965e+01 0.000000000000000000e+00 0.000000000000000000e+00 -5.465549100000000049e-02 1.001363848199999929e+01 0.000000000000000000e+00 -1.282370610000000133e-01 1.926086369999999992e-01 1.038458178399999987e+01
1.025005629200000001e+01 0.000000000000000000e+00 0.000000000000000000e+00 -2.242918640000000075e-01 1.023394128600000030e+01 0.000000000000000000e+00 -2.721616740000000201e-01 -2.617529259999999969e-01 1.005769767099999967e+01
1.025005629200000001e+01 0.000000000000000000e+00 0.000000000000000000e+00 -2.242918640000000075e-01 1.023394128600000030e+01 0.000000000000000000e+00 -2.721616740000000201e-01 -2.617529259999999969e-01 1.005769767099999967e+01
1.025005629200000001e+01 0.000000000000000000e+00 0.000000000000000000e+00 -2.242918640000000075e-01 1.023394128600000030e+01 0.000000000000000000e+00 -2.721616740000000201e-01 -2.617529259999999969e-01 1.005769767099999967e+01
1.025005629200000001e+01 0.000000000000000000e+00 0.000000000000000000e+00 -2.242918640000000075e-01 1.023394128600000030e+01 0.000000000000000000e+00 -2.721616740000000201e-01 -2.617529259999999969e-01 1.005769767099999967e+01
1.025005629200000001e+01 0.000000000000000000e+00 0.000000000000000000e+00 -2.242918640000000075e-01 1.023394128600000030e+01 0.000000000000000000e+00 -2.721616740000000201e-01 -2.617529259999999969e-01 1.005769767099999967e+01
1.009939095200000025e+01 0.000000000000000000e+00 0.000000000000000000e+00 2.960479400000000025e-02 1.020577758099999954e+01 0.000000000000000000e+00 2.391169469999999964e-01 5.179924300000000176e-02 1.025658634500000055e+01
1.009939095200000025e+01 0.000000000000000000e+00 0.000000000000000000e+00 2.960479400000000025e-02 1.020577758099999954e+01 0.000000000000000000e+00 2.391169469999999964e-01 5.179924300000000176e-02 1.025658634500000055e+01
1.009939095200000025e+01 0.000000000000000000e+00 0.000000000000000000e+00 2.960479400000000025e-02 1.020577758099999954e+01 0.000000000000000000e+00 2.391169469999999964e-01 5.179924300000000176e-02 1.025658634500000055e+01
1.009939095200000025e+01 0.000000000000000000e+00 0.000000000000000000e+00 2.960479400000000025e-02 1.020577758099999954e+01 0.000000000000000000e+00 2.391169469999999964e-01 5.179924300000000176e-02 1.025658634500000055e+01
1.009939095200000025e+01 0.000000000000000000e+00 0.000000000000000000e+00 2.960479400000000025e-02 1.020577758099999954e+01 0.000000000000000000e+00 2.391169469999999964e-01 5.179924300000000176e-02 1.025658634500000055e+01
1.060381677100000175e+01 -2.646977960169688560e-23 0.000000000000000000e+00 3.460002935674075773e-07 1.060383610599999393e+01 0.000000000000000000e+00 0.000000000000000000e+00 0.000000000000000000e+00 1.057605310799999998e+01
1.060381677100000175e+01 -2.646977960169688560e-23 0.000000000000000000e+00 3.460002935674075773e-07 1.060383610599999393e+01 0.000000000000000000e+00 0.000000000000000000e+00 0.000000000000000000e+00 1.057605310799999998e+01
1.060381677100000175e+01 -2.646977960169688560e-23 0.000000000000000000e+00 3.460002935674075773e-07 1.060383610599999393e+01 0.000000000000000000e+00 0.000000000000000000e+00 0.000000000000000000e+00 1.057605310799999998e+01
1.060381677100000175e+01 -2.646977960169688560e-23 0.000000000000000000e+00 3.460002935674075773e-07 1.060383610599999393e+01 0.000000000000000000e+00 0.000000000000000000e+00 0.000000000000000000e+00 1.057605310799999998e+01
1.060381677100000175e+01 -2.646977960169688560e-23 0.000000000000000000e+00 3.460002935674075773e-07 1.060383610599999393e+01 0.000000000000000000e+00 0.000000000000000000e+00 0.000000000000000000e+00 1.057605310799999998e+01
1.050078987300000044e+01 0.000000000000000000e+00 0.000000000000000000e+00 -5.004507000000000053e-03 1.058817198799999915e+01 0.000000000000000000e+00 -6.480543199999999615e-02 -2.070669380000000059e-01 1.076809892200000007e+01
1.050078987300000044e+01 0.000000000000000000e+00 0.000000000000000000e+00 -5.004507000000000053e-03 1.058817198799999915e+01 0.000000000000000000e+00 -6.480543199999999615e-02 -2.070669380000000059e-01 1.076809892200000007e+01
1.050078987300000044e+01 0.000000000000000000e+00 0.000000000000000000e+00 -5.004507000000000053e-03 1.058817198799999915e+01 0.000000000000000000e+00 -6.480543199999999615e-02 -2.070669380000000059e-01 1.076809892200000007e+01
1.050078987300000044e+01 0.000000000000000000e+00 0.000000000000000000e+00 -5.004507000000000053e-03 1.058817198799999915e+01 0.000000000000000000e+00 -6.480543199999999615e-02 -2.070669380000000059e-01 1.076809892200000007e+01
1.050078987300000044e+01 0.000000000000000000e+00 0.000000000000000000e+00 -5.004507000000000053e-03 1.058817198799999915e+01 0.000000000000000000e+00 -6.480543199999999615e-02 -2.070669380000000059e-01 1.076809892200000007e+01
1.068691189199999947e+01 0.000000000000000000e+00 0.000000000000000000e+00 -8.892814000000000621e-03 1.060262152800000024e+01 0.000000000000000000e+00 7.807252700000000267e-02 1.983870249999999946e-01 1.035068625299999923e+01
1.068691189199999947e+01 0.000000000000000000e+00 0.000000000000000000e+00 -8.892814000000000621e-03 1.060262152800000024e+01 0.000000000000000000e+00 7.807252700000000267e-02 1.983870249999999946e-01 1.035068625299999923e+01
1.068691189199999947e+01 0.000000000000000000e+00 0.000000000000000000e+00 -8.892814000000000621e-03 1.060262152800000024e+01 0.000000000000000000e+00 7.807252700000000267e-02 1.983870249999999946e-01 1.035068625299999923e+01
1.068691189199999947e+01 0.000000000000000000e+00 0.000000000000000000e+00 -8.892814000000000621e-03 1.060262152800000024e+01 0.000000000000000000e+00 7.807252700000000267e-02 1.983870249999999946e-01 1.035068625299999923e+01
1.068691189199999947e+01 0.000000000000000000e+00 0.000000000000000000e+00 -8.892814000000000621e-03 1.060262152800000024e+01 0.000000000000000000e+00 7.807252700000000267e-02 1.983870249999999946e-01 1.035068625299999923e+01
1.058488971300000081e+01 0.000000000000000000e+00 0.000000000000000000e+00 1.401558689999999885e-01 1.065978011099999989e+01 0.000000000000000000e+00 8.110211700000000135e-02 2.657226289999999880e-01 1.037233480199999924e+01
1.058488971300000081e+01 0.000000000000000000e+00 0.000000000000000000e+00 1.401558689999999885e-01 1.065978011099999989e+01 0.000000000000000000e+00 8.110211700000000135e-02 2.657226289999999880e-01 1.037233480199999924e+01
1.058488971300000081e+01 0.000000000000000000e+00 0.000000000000000000e+00 1.401558689999999885e-01 1.065978011099999989e+01 0.000000000000000000e+00 8.110211700000000135e-02 2.657226289999999880e-01 1.037233480199999924e+01
1.058488971300000081e+01 0.000000000000000000e+00 0.000000000000000000e+00 1.401558689999999885e-01 1.065978011099999989e+01 0.000000000000000000e+00 8.110211700000000135e-02 2.657226289999999880e-01 1.037233480199999924e+01
1.058488971300000081e+01 0.000000000000000000e+00 0.000000000000000000e+00 1.401558689999999885e-01 1.065978011099999989e+01 0.000000000000000000e+00 8.110211700000000135e-02 2.657226289999999880e-01 1.037233480199999924e+01
1.034626770200000045e+01 0.000000000000000000e+00 0.000000000000000000e+00 1.644761540000000133e-01 1.070632172400000037e+01 0.000000000000000000e+00 2.349468530000000110e-01 2.723764830000000026e-01 1.070579021700000055e+01
1.034626770200000045e+01 0.000000000000000000e+00 0.000000000000000000e+00 1.644761540000000133e-01 1.070632172400000037e+01 0.000000000000000000e+00 2.349468530000000110e-01 2.723764830000000026e-01 1.070579021700000055e+01
1.034626770200000045e+01 0.000000000000000000e+00 0.000000000000000000e+00 1.644761540000000133e-01 1.070632172400000037e+01 0.000000000000000000e+00 2.349468530000000110e-01 2.723764830000000026e-01 1.070579021700000055e+01
1.034626770200000045e+01 0.000000000000000000e+00 0.000000000000000000e+00 1.644761540000000133e-01 1.070632172400000037e+01 0.000000000000000000e+00 2.349468530000000110e-01 2.723764830000000026e-01 1.070579021700000055e+01
1.034626770200000045e+01 0.000000000000000000e+00 0.000000000000000000e+00 1.644761540000000133e-01 1.070632172400000037e+01 0.000000000000000000e+00 2.349468530000000110e-01 2.723764830000000026e-01 1.070579021700000055e+01
1.092193127400000208e+01 -2.646977960169688560e-23 0.000000000000000000e+00 3.570003026836478795e-07 1.092195118899999429e+01 0.000000000000000000e+00 0.000000000000000000e+00 0.000000000000000000e+00 1.089333470100000056e+01
1.092193127400000208e+01 -2.646977960169688560e-23 0.000000000000000000e+00 3.570003026836478795e-07 1.092195118899999429e+01 0.000000000000000000e+00 0.000000000000000000e+00 0.000000000000000000e+00 1.089333470100000056e+01
1.092193127400000208e+01 -2.646977960169688560e-23 0.000000000000000000e+00 3.570003026836478795e-07 1.092195118899999429e+01 0.000000000000000000e+00 0.000000000000000000e+00 0.000000000000000000e+00 1.089333470100000056e+01
1.092193127400000208e+01 -2.646977960169688560e-23 0.000000000000000000e+00 3.570003026836478795e-07 1.092195118899999429e+01 0.000000000000000000e+00 0.000000000000000000e+00 0.000000000000000000e+00 1.089333470100000056e+01
1.092193127400000208e+01 -2.646977960169688560e-23 0.000000000000000000e+00 3.570003026836478795e-07 1.092195118899999429e+01 0.000000000000000000e+00 0.000000000000000000e+00 0.000000000000000000e+00 1.089333470100000056e+01
1.105916346899999958e+01 0.000000000000000000e+00 0.000000000000000000e+00 3.201480599999999982e-02 1.102026395400000069e+01 0.000000000000000000e+00 -6.686775200000000252e-02 -3.132489230000000124e-01 1.094742050900000052e+01
1.105916346899999958e+01 0.000000000000000000e+00 0.000000000000000000e+00 3.201480599999999982e-02 1.102026395400000069e+01 0.000000000000000000e+00 -6.686775200000000252e-02 -3.132489230000000124e-01 1.094742050900000052e+01
1.105916346899999958e+01 0.000000000000000000e+00 0.000000000000000000e+00 3.201480599999999982e-02 1.102026395400000069e+01 0.000000000000000000e+00 -6.686775200000000252e-02 -3.132489230000000124e-01 1.094742050900000052e+01
1.105916346899999958e+01 0.000000000000000000e+00 0.000000000000000000e+00 3.201480599999999982e-02 1.102026395400000069e+01 0.000000000000000000e+00 -6.686775200000000252e-02 -3.132489230000000124e-01 1.094742050900000052e+01
1.105916346899999958e+01 0.000000000000000000e+00 0.000000000000000000e+00 3.201480599999999982e-02 1.102026395400000069e+01 0.000000000000000000e+00 -6.686775200000000252e-02 -3.132489230000000124e-01 1.094742050900000052e+01
1.107771855700000074e+01 0.000000000000000000e+00 0.000000000000000000e+00 -8.033211899999999350e-02 1.109499802999999929e+01 0.000000000000000000e+00 -2.495752179999999876e-01 2.687401520000000099e-01 1.062890988400000047e+01
1.107771855700000074e+01 0.000000000000000000e+00 0.000000000000000000e+00 -8.033211899999999350e-02 1.109499802999999929e+01 0.000000000000000000e+00 -2.495752179999999876e-01 2.687401520000000099e-01 1.062890988400000047e+01
1.107771855700000074e+01 0.000000000000000000e+00 0.000000000000000000e+00 -8.033211899999999350e-02 1.109499802999999929e+01 0.000000000000000000e+00 -2.495752179999999876e-01 2.687401520000000099e-01 1.062890988400000047e+01
1.107771855700000074e+01 0.000000000000000000e+00 0.000000000000000000e+00 -8.033211899999999350e-02 1.109499802999999929e+01 0.000000000000000000e+00 -2.495752179999999876e-01 2.687401520000000099e-01 1.062890988400000047e+01
1.107771855700000074e+01 0.000000000000000000e+00 0.000000000000000000e+00 -8.033211899999999350e-02 1.109499802999999929e+01 0.000000000000000000e+00 -2.495752179999999876e-01 2.687401520000000099e-01 1.062890988400000047e+01
1.086233482199999933e+01 0.000000000000000000e+00 0.000000000000000000e+00 -4.368512199999999984e-02 1.114825569299999941e+01 0.000000000000000000e+00 -1.642571579999999865e-01 1.087810949999999943e-01 1.094647559300000061e+01
1.086233482199999933e+01 0.000000000000000000e+00 0.000000000000000000e+00 -4.368512199999999984e-02 1.114825569299999941e+01 0.000000000000000000e+00 -1.642571579999999865e-01 1.087810949999999943e-01 1.094647559300000061e+01
1.086233482199999933e+01 0.000000000000000000e+00 0.000000000000000000e+00 -4.368512199999999984e-02 1.114825569299999941e+01 0.000000000000000000e+00 -1.642571579999999865e-01 1.087810949999999943e-01 1.094647559300000061e+01
1.086233482199999933e+01 0.000000000000000000e+00 0.000000000000000000e+00 -4.368512199999999984e-02 1.114825569299999941e+01 0.000000000000000000e+00 -1.642571579999999865e-01 1.087810949999999943e-01 1.094647559300000061e+01
1.086233482199999933e+01 0.000000000000000000e+00 0.000000000000000000e+00 -4.368512199999999984e-02 1.114825569299999941e+01 0.000000000000000000e+00 -1.642571579999999865e-01 1.087810949999999943e-01 1.094647559300000061e+01
1.093250645300000023e+01 0.000000000000000000e+00 0.000000000000000000e+00 -5.310357100000000219e-02 1.090037636399999954e+01 0.000000000000000000e+00 2.535806380000000249e-01 2.225977100000000111e-02 1.108687588999999996e+01
1.093250645300000023e+01 0.000000000000000000e+00 0.000000000000000000e+00 -5.310357100000000219e-02 1.090037636399999954e+01 0.000000000000000000e+00 2.535806380000000249e-01 2.225977100000000111e-02 1.108687588999999996e+01
1.093250645300000023e+01 0.000000000000000000e+00 0.000000000000000000e+00 -5.310357100000000219e-02 1.090037636399999954e+01 0.000000000000000000e+00 2.535806380000000249e-01 2.225977100000000111e-02 1.108687588999999996e+01
1.093250645300000023e+01 0.000000000000000000e+00 0.000000000000000000e+00 -5.310357100000000219e-02 1.090037636399999954e+01 0.000000000000000000e+00 2.535806380000000249e-01 2.225977100000000111e-02 1.108687588999999996e+01
1.093250645300000023e+01 0.000000000000000000e+00 0.000000000000000000e+00 -5.310357100000000219e-02 1.090037636399999954e+01 0.000000000000000000e+00 2.535806380000000249e-01 2.225977100000000111e-02 1.108687588999999996e+01
