2.571430033893596256e+00 2.234739960999932329e+00 5.129389999999999894e+00 2.909030078000134356e+00 5.142859955879658607e+00 7.694079999999999586e+00 1.028570011700020181e+01 7.714289844000033369e+00 7.357380000000000031e+00 7.376669999999999838e+00 -1.118796257189115737e-07 7.694079999999999586e+00 5.142850117000201671e+00 7.714289922000016730e+00 2.901390000000000136e+00 2.571430122106672655e+00 8.050979960999930185e+00 1.025877000000000017e+01 7.714280122106671911e+00 8.050979882999946824e+00 5.129389999999999894e+00 7.376680078000134699e+00 5.142859888120221434e+00 2.564690000000000136e+00 3.900006723391188394e-08 2.571429999999999438e+00 2.901390000000000136e+00 2.909030156000269152e+00 1.028571995587965837e+01 2.564690000000000136e+00 5.142850039000067319e+00 2.571429922000016521e+00 7.357380000000000031e+00 7.714280033893595956e+00 2.234739882999949412e+00 0.000000000000000000e+00 1.028570000000000029e+01 -1.559999656019598188e-07 5.129389999999999894e+00 5.142850078000134495e+00 5.142859922000016404e+00 5.129389999999999894e+00 5.142850156000268846e+00 1.028571992200001439e+01 0.000000000000000000e+00 5.142850156000268846e+00 1.028571992200001439e+01 5.129389999999999894e+00 7.714280111893730307e+00 7.377599882999949621e+00 1.025877000000000017e+01 8.051880000000000592e+00 -1.221203226840281412e-07 2.564690000000000136e+00 5.142850039000067319e+00 2.571429922000016521e+00 2.228000000000000203e+00 2.233820078000134490e+00 5.142859966120355786e+00 2.564690000000000136e+00 1.028570003900006746e+01 2.571429844000034048e+00 8.030770000000000408e+00 7.714280044106537559e+00 2.908119882999949279e+00 5.129389999999999894e+00 2.571430044106538304e+00 2.908119960999932196e+00 0.000000000000000000e+00 2.233820156000269286e+00 1.028571996612035555e+01 7.694079999999999586e+00 5.142850117000201671e+00 7.714289922000016730e+00 8.030770000000000408e+00 8.051880078000134944e+00 5.142859877879676134e+00 7.694079999999999586e+00 1.028570011700020181e+01 7.714289844000033369e+00 2.228000000000000203e+00 2.571430111893730608e+00 7.377599960999932094e+00 5.129389999999999894e+00 5.142850078000134495e+00 5.142859922000016404e+00 0.000000000000000000e+00 1.028570015600026899e+01 1.028571984400003281e+01 1.025877000000000017e+01 1.028570007800013464e+01 5.142859844000033043e+00 5.129389999999999894e+00 1.028570007800013464e+01 5.142859844000033043e+00 1.025877000000000017e+01 4.129480056052425851e+00 3.695759937369479609e+00 8.927490000000000592e+00 6.156230021947708408e+00 1.447099906630402444e+00 8.927490000000000592e+00 4.129480099947843819e+00 6.589959937369479270e+00 6.460670000000000357e+00 3.807420015394943125e+00 1.015049942254062421e+00 6.576789999999999914e+00 3.696500135764575035e+00 8.951499943936347847e+00 4.122899999999999565e+00 8.839350098235827957e+00 6.477079865936367753e+00 6.135869999999999713e+00 1.335430015394942993e+00 1.015049979745954456e+00 3.681989999999999874e+00 1.446350135764575384e+00 8.951499978063663931e+00 6.135869999999999713e+00 1.335430140605325944e+00 9.270669979745953526e+00 1.447400000000000020e+00 6.589200098235828307e+00 6.477079900063682061e+00 4.122899999999999565e+00 3.807420140605326075e+00 9.270669942254061269e+00 8.811370000000000147e+00 6.156230134052560032e+00 8.838619906630400536e+00 6.460670000000000357e+00 6.156230099947843648e+00 6.589959906630401321e+00 1.331280000000000019e+00 4.129480134052560203e+00 8.838619937369479374e+00 1.331280000000000019e+00 6.156230056052425681e+00 3.695759906630402103e+00 3.798099999999999810e+00 6.478280140605325421e+00 9.270669901745970165e+00 3.681989999999999874e+00 4.129480021947708579e+00 1.447099937369479949e+00 3.798099999999999810e+00 6.478280015394942914e+00 1.015049901745971761e+00 1.447400000000000020e+00 3.696500057764440683e+00 3.808639943936350747e+00 6.135869999999999713e+00 8.950270015394941936e+00 1.015049864254079504e+00 8.811370000000000147e+00 8.839350020235693606e+00 1.334219865936368210e+00 4.122899999999999565e+00 8.950270140605326219e+00 9.270669864254079684e+00 6.576789999999999914e+00 1.446350057764440811e+00 3.808639978063665499e+00 4.122899999999999565e+00 6.589200020235693955e+00 1.334219900063682962e+00 6.135869999999999713e+00 9.272330134052559458e+00 8.838619859369496012e+00 3.798099999999999810e+00 1.013380099947843282e+00 6.589959984630383794e+00 3.798099999999999810e+00 9.272330021947709611e+00 1.447099859369497254e+00 1.331280000000000019e+00 8.950270093395078064e+00 6.157909864254079046e+00 1.447400000000000020e+00 8.839350057764439939e+00 3.808639865936367830e+00 9.252290000000000347e+00 3.696500020235693462e+00 1.334219943936350905e+00 1.006490000000000107e+00 6.478280093395077266e+00 6.157909901745971304e+00 8.811370000000000147e+00 6.589200057764441176e+00 3.808639900063683026e+00 1.006490000000000107e+00 6.478280062605191070e+00 4.127809901745971288e+00 6.576789999999999914e+00 1.446350020235693590e+00 1.334219978063665879e+00 9.252290000000000347e+00 8.950270062605191868e+00 4.127809864254079031e+00 3.681989999999999874e+00 1.013380056052425537e+00 3.695759984630385020e+00 1.331280000000000019e+00 1.013380021947708931e+00 1.447099984630385139e+00 6.460670000000000357e+00 9.272330056052425107e+00 3.695759859369496692e+00 6.460670000000000357e+00 1.013380134052559889e+00 8.838619984630383897e+00 8.927490000000000592e+00 1.335430062605191370e+00 4.127809979745953761e+00 8.811370000000000147e+00 9.272330099947843962e+00 6.589959859369495909e+00 8.927490000000000592e+00 1.335430093395077344e+00 6.157909979745953777e+00 6.576789999999999914e+00 8.839350135764574290e+00 8.951499865936366263e+00 1.006490000000000107e+00 3.807420093395077476e+00 6.157909942254061519e+00 3.681989999999999874e+00 3.696500098235827814e+00 6.477079943936350226e+00 9.252290000000000347e+00 3.807420062605191724e+00 4.127809942254061504e+00 1.447400000000000020e+00 6.589200135764575528e+00 8.951499900063680570e+00 9.252290000000000347e+00 1.446350098235828163e+00 6.477079978063665422e+00 1.006490000000000107e+00
2.571620033872514366e+00 2.233349960997050854e+00 5.124889999999999723e+00 2.908090077997556033e+00 5.142689955893915865e+00 7.694829999999999615e+00 1.028560011701521759e+01 7.715279844001550202e+00 7.355489999999999640e+00 7.377260000028967646e+00 1.909888111425937047e-03 7.695500000000000007e+00 5.141020117012335078e+00 7.715089922027771330e+00 2.901349999999999874e+00 2.570570122083164488e+00 8.049429961012974033e+00 1.610000000000000103e-03 7.710270122048584973e+00 8.047149883060766840e+00 5.130679999999999907e+00 7.377460077989820952e+00 5.142179888108391772e+00 2.565529999999999866e+00 2.460038985507216960e-03 2.570469999962689212e+00 2.902260000000000062e+00 2.910680000020172020e+00 1.329955854635087595e-03 2.566879999999999828e+00 5.143120038992179843e+00 2.570909921995921721e+00 7.357840000000000380e+00 7.714950033865992651e+00 2.232919882989787830e+00 6.899999999999999667e-04 8.700000414050483404e-04 2.729999986804983961e-03 5.130080000000000418e+00 5.140890078007262609e+00 5.143329922029742818e+00 5.127220000000000333e+00 5.141160155981765456e+00 1.028449992202564722e+01 3.499999999999999964e-04 5.142600000064609489e+00 4.259922003808869206e-03 5.128510000000000346e+00 7.711750111858089340e+00 7.375249883038320853e+00 1.840000000000000056e-03 8.053640155959772784e+00 1.028304987785298152e+01 2.564779999999999838e+00 5.142850039006892082e+00 2.571879922000016805e+00 2.229449999999999932e+00 2.232410077987545982e+00 5.142029966141741681e+00 2.564459999999999962e+00 1.028490003904071415e+01 2.574109844012167247e+00 8.030499999999999972e+00 7.715610044089703301e+00 2.907009882979778137e+00 5.128470000000000084e+00 2.571490044102898054e+00 2.907879960999022462e+00 9.399999999999999719e-04 2.235030155938237062e+00 1.028162996610200430e+01 7.690279999999999561e+00 5.141540116994286258e+00 7.713899922019884059e+00 8.027739999999999654e+00 8.050620077993915658e+00 5.142449877898786603e+00 7.695829999999999949e+00 1.028530011698457969e+01 7.713259844006100430e+00 2.226989999999999803e+00 2.573820111891455653e+00 7.377449960963683218e+00 5.129909999999999748e+00 5.144150077968435930e+00 5.140769921980299806e+00 3.099999999999999999e-04 1.980155981158913166e-03 1.028445999996996818e+01 1.025866000000000078e+01 1.028358007801681850e+01 5.143959844032186979e+00 5.130309999999999704e+00 1.028492007795736463e+01 5.140039844011863757e+00 1.250000000000000026e-03 4.126490056206670864e+00 3.705929937414828235e+00 8.934079999999999799e+00 6.156120021995332259e+00 1.450239906632070586e+00 8.922390000000000043e+00 4.137090099966195034e+00 6.591169937254060862e+00 6.466660000000000075e+00 3.799160015514305044e+00 1.022919942379339142e+00 6.578660000000000174e+00 3.698470135785353552e+00 8.952869943906470951e+00 4.121089999999999698e+00 8.835550098252056728e+00 6.478149865994001111e+00 6.132649999999999935e+00 1.333090015466984912e+00 1.019799979781444543e+00 3.675510000000000055e+00 1.451130135849963754e+00 8.957129977991167280e+00 6.140810000000000102e+00 1.334940140557399291e+00 9.267509979753384641e+00 1.447670000000000012e+00 6.595960098331378418e+00 6.483379899961155601e+00 4.120630000000000237e+00 3.806840140572413933e+00 9.268499942262856450e+00 8.808550000000000324e+00 6.152270134084106168e+00 8.840699906690460352e+00 6.466440000000000410e+00 6.160530099938136495e+00 6.589319906565184404e+00 1.333450000000000024e+00 4.119520134117776067e+00 8.842919937520537843e+00 1.320829999999999949e+00 6.159680056020575556e+00 3.693659906578076857e+00 3.789649999999999963e+00 6.471030140637327399e+00 9.272779901855928486e+00 3.682300000000000129e+00 4.133440021970611333e+00 1.448609937309419893e+00 3.795690000000000008e+00 6.476060015491858834e+00 1.021439901779641612e+00 1.454690000000000039e+00 3.706480057827837626e+00 3.812819943784987231e+00 6.135930000000000106e+00 8.950990015376742548e+00 1.013849864243159482e+00 8.812950000000000728e+00 8.840740020367643837e+00 1.342919865915286337e+00 4.118420000000000414e+00 8.948230140612302819e+00 9.271129864285017064e+00 6.575599999999999667e+00 1.442370057740780753e+00 3.807079978124029207e+00 4.130419999999999980e+00 6.594050020187008698e+00 1.331009899990124534e+00 6.133549999999999613e+00 9.269430134113227027e+00 8.842619859413479944e+00 3.794179999999999886e+00 1.014020100071906905e+00 6.598139984620678078e+00 3.793820000000000192e+00 9.269240021933603302e+00 1.446169859416362113e+00 1.340500000000000025e+00 8.951300093357614784e+00 6.155439864238457126e+00 1.450830000000000064e+00 8.844310057816462844e+00 3.812069865861141160e+00 9.257009999999999295e+00 3.686800020265268429e+00 1.336169944083467787e+00 9.994199999999999751e-01 6.478450093452407188e+00 6.161689901743392817e+00 8.815820000000000434e+00 6.595510057860597186e+00 3.814979899967980703e+00 1.007989999999999942e+00 6.485070062646596689e+00 4.130539901642989342e+00 6.570590000000000153e+00 1.446770020090093256e+00 1.324619978057295810e+00 9.244289999999999452e+00 8.946610062722278656e+00 4.135529864309589243e+00 3.681529999999999969e+00 1.020680056012537085e+00 3.693129984519668341e+00 1.328140000000000098e+00 1.015090022038557471e+00 1.453089984604450047e+00 6.457449999999999690e+00 9.273120055889233271e+00 3.684999859357515284e+00 6.461269999999999847e+00 1.014800133945028104e+00 8.831529984608847528e+00 8.929140000000000299e+00 1.346180062534514610e+00 4.123149979582911406e+00 8.813660000000000494e+00 9.270950100080550982e+00 6.598709859390425869e+00 8.934559999999999391e+00 1.337860093400689232e+00 6.158279979709099017e+00 6.574790000000000134e+00 8.836490135826606362e+00 8.955589865979744602e+00 1.001330000000000053e+00 3.817490093513074001e+00 6.165689942101332477e+00 3.683879999999999821e+00 3.690390098255544427e+00 6.478379944029017956e+00 9.253310000000000812e+00 3.802650062572734857e+00 4.125669942326407380e+00 1.454199999999999937e+00 6.589180135789751702e+00 8.953159900063985432e+00 9.250619999999999621e+00 1.450620098203674768e+00 6.474959977998903327e+00 1.005740000000000078e+00
2.571830033852645858e+00 2.232039960993865702e+00 5.120429999999999815e+00 2.907140077995281402e+00 5.142539955908324245e+00 7.695590000000000153e+00 1.028550011703038436e+01 7.716279844003066657e+00 7.353679999999999772e+00 7.377900000057482366e+00 3.789888101719258821e-03 7.696909999999999918e+00 5.139210117024923363e+00 7.715919922055222813e+00 2.901209999999999845e+00 2.569700122059049185e+00 8.047839961026170386e+00 3.180000000000000101e-03 7.706270121990950628e+00 8.043349883121432953e+00 5.131960000000000299e+00 7.378280077979811225e+00 5.141519888095954727e+00 2.566370000000000040e+00 4.880038971553867476e-03 2.569549999925986317e+00 2.903070000000000039e+00 2.912270000040191764e+00 2.649955830520059254e-03 2.569010000000000016e+00 5.143380038984900260e+00 2.570429921991978617e+00 7.358340000000000103e+00 7.715620033839147851e+00 2.231149882979626131e+00 1.399999999999999986e-03 1.720000082658429972e-03 5.449999973913302077e-03 5.130770000000000053e+00 5.138980078014239616e+00 5.143789922058711106e+00 5.125040000000000262e+00 5.139480155963565444e+00 1.028329992205112831e+01 6.800000000000000488e-04 5.142350000129068732e+00 8.509922007600539615e-03 5.127659999999999663e+00 7.709240111823812747e+00 7.372989883076388473e+00 3.700000000000000164e-03 8.055320155919430292e+00 1.028038987782750269e+01 2.564880000000000049e+00 5.142840039014020093e+00 2.572349922000168654e+00 2.230910000000000171e+00 2.231060077975260736e+00 5.141219966162215549e+00 2.564259999999999984e+00 1.028414003908060259e+01 2.576739844023693937e+00 8.030210000000000292e+00 7.716930044072261019e+00 2.905859882959757723e+00 5.127539999999999765e+00 2.571550044098044552e+00 2.907559960998112647e+00 1.840000000000000056e-03 2.236280155876660292e+00 1.027756996608304618e+01 7.686530000000000307e+00 5.140240116988675112e+00 7.713529922039601416e+00 8.024710000000000676e+00 8.049320077988001643e+00 5.142059877918502941e+00 7.697589999999999932e+00 1.028488011696910931e+01 7.712239844012470869e+00 2.226020000000000110e+00 2.576220111890090703e+00 7.377359960927283744e+00 5.130429999999999602e+00 5.145430077937192870e+00 5.138709921960885829e+00 6.499999999999999702e-04 3.960155962048890997e-03 1.028319999993993861e+01 1.025855999999999923e+01 1.028145007803334821e+01 5.145049844064492284e+00 5.131219999999999892e+00 1.028417007791504822e+01 5.137249844023238587e+00 2.500000000000000052e-03 4.124060056349541092e+00 3.715349937451683182e+00 8.940450000000000230e+00 6.155720022048718931e+00 1.453759906638137256e+00 8.917650000000000077e+00 4.144780099988945032e+00 6.592669937137428882e+00 6.472209999999999575e+00 3.791350015627903414e+00 1.030409942497791054e+00 6.580770000000000231e+00 3.699910135807952027e+00 8.954359943884631079e+00 4.119609999999999772e+00 8.831410098264038666e+00 6.478939866056790287e+00 6.129389999999999894e+00 1.330760015531443186e+00 1.024049979816782807e+00 3.668810000000000127e+00 1.456210135933228900e+00 8.962619977914119573e+00 6.145190000000000374e+00 1.334320140516145781e+00 9.264789979762786842e+00 1.448420000000000041e+00 6.602880098421771926e+00 6.489339899856202187e+00 4.118629999999999569e+00 3.806470140545569425e+00 9.266729942268469244e+00 8.805369999999999919e+00 6.148090134110041127e+00 8.842409906753855964e+00 6.471840000000000259e+00 6.164310099935710774e+00 6.589159906507854991e+00 1.335530000000000106e+00 4.110210134174804075e+00 8.846679937661740212e+00 1.310750000000000082e+00 6.162750055984023589e+00 3.691249906531515634e+00 3.781620000000000203e+00 6.463810140674788762e+00 9.275249901965432642e+00 3.682259999999999867e+00 4.137590021999275613e+00 1.450499937246477966e+00 3.793460000000000054e+00 6.473700015581189682e+00 1.027329901815435154e+00 1.462110000000000021e+00 3.715770057889869360e+00 3.816909943644088532e+00 6.135659999999999670e+00 8.951840015355054803e+00 1.012419864230267974e+00 8.814170000000000726e+00 8.841800020493678858e+00 1.351229865899209681e+00 4.114279999999999937e+00 8.946450140624284231e+00 9.271919864312014425e+00 6.574740000000000251e+00 1.438900057721519188e+00 3.805809978176657449e+00 4.138049999999999784e+00 6.599170020138474868e+00 1.327809899912471003e+00 6.131020000000000358e+00 9.266860134166158502e+00 8.846109859452456092e+00 3.790540000000000020e+00 1.014440100198852113e+00 6.606509984614308273e+00 3.789930000000000021e+00 9.266520021925414241e+00 1.445629859457615574e+00 1.349290000000000100e+00 8.952550093315755575e+00 6.152679864219498640e+00 1.454509999999999970e+00 8.848680057868181237e+00 3.815479865794862757e+00 9.261879999999999669e+00 3.676950020289990739e+00 1.337799944232859639e+00 9.923300000000000454e-01 6.478520093502154076e+00 6.164969901742331615e+00 8.819760000000000488e+00 6.602150057954782270e+00 3.821189899867274420e+00 1.009050000000000002e+00 6.491570062691945253e+00 4.133529901544406471e+00 6.564899999999999736e+00 1.447640019947526779e+00 1.315219978044100957e+00 9.236720000000000041e+00 8.943360062841639646e+00 4.143399864358880080e+00 3.680810000000000137e+00 1.027460055967340358e+00 3.690149984416838169e+00 1.325099999999999945e+00 1.016440022134410981e+00 1.459409984583975195e+00 6.454080000000000261e+00 9.274200055725280833e+00 3.674189859341134845e+00 6.461700000000000443e+00 1.015820133832491257e+00 8.824109984593375700e+00 8.930830000000000268e+00 1.356380062469752845e+00 4.118879979428212046e+00 8.815549999999999997e+00 9.269970100216143649e+00 6.607649859405289483e+00 8.941499999999999559e+00 1.340070093401902529e+00 6.158359979675580576e+00 6.573129999999999917e+00 8.833210135888485581e+00 8.959669866029489782e+00 9.959999999999999964e-01 3.827240093622274575e+00 6.172889941953457971e+00 3.685299999999999798e+00 3.684040098271621488e+00 6.479439944125327422e+00 9.254569999999999297e+00 3.798210062546496513e+00 4.123939942393747060e+00 1.461249999999999938e+00 6.589590135816597360e+00 8.954929900057765124e+00 9.249320000000000874e+00 1.455200098168639711e+00 6.472649977929440190e+00 1.004820000000000046e+00
2.572060033834749682e+00 2.230859960990377200e+00 5.116039999999999921e+00 2.906180077993157695e+00 5.142399955922885013e+00 7.696360000000000312e+00 1.028538011704555011e+01 7.717279844004886868e+00 7.351960000000000051e+00 7.378590000085540446e+00 5.639888091254246366e-03 7.698310000000000208e+00 5.137460117038118668e+00 7.716789922081764175e+00 2.900910000000000100e+00 2.568810122034327570e+00 8.046209961039668457e+00 4.689999999999999725e-03 7.702270121934834179e+00 8.039649883182100609e+00 5.133219999999999672e+00 7.379140077970407496e+00 5.140899888082912206e+00 2.567210000000000214e+00 7.230038959117186109e-03 2.568729999890344562e+00 2.903810000000000002e+00 2.913760000060059863e+00 3.959955807921698538e-03 2.571050000000000058e+00 5.143640038978833928e+00 2.570029921988035149e+00 7.358889999999999709e+00 7.716290033813364424e+00 2.229449882969464447e+00 2.150000000000000001e-03 2.520000124063478345e-03 8.179999961779952852e-03 5.131439999999999557e+00 5.137180078021367891e+00 5.144259922086011905e+00 5.122849999999999682e+00 5.137800155945821068e+00 1.028212992207660825e+01 9.899999999999999946e-04 5.142130000192768335e+00 1.270992201093721144e-02 5.126850000000000129e+00 7.706740111791355652e+00 7.370849883114305889e+00 5.570000000000000298e-03 8.056910155879846158e+00 1.027777987780338620e+01 2.564999999999999947e+00 5.142820039021452239e+00 2.572839922000471624e+00 2.232359999999999900e+00 2.229780077963279261e+00 5.140429966181629950e+00 2.564099999999999824e+00 1.028346003911927653e+01 2.579289844034007295e+00 8.029899999999999594e+00 7.718230044054668504e+00 2.904699882940041000e+00 5.126559999999999562e+00 2.571600044091978177e+00 2.907159960997354187e+00 2.690000000000000117e-03 2.237570155815841844e+00 1.027355996606348043e+01 7.682870000000000310e+00 5.138940116983214956e+00 7.713169922059317507e+00 8.021750000000000824e+00 8.048000077982541356e+00 5.141699877938523677e+00 7.699349999999999916e+00 1.028443011695424758e+01 7.711259844019295429e+00 2.225060000000000038e+00 2.578630111889787191e+00 7.377339960890732407e+00 5.130980000000000096e+00 5.146680077906859552e+00 5.136709921941927881e+00 1.039999999999999909e-03 5.940155942938868394e-03 1.028193999990990903e+01 1.025844999999999985e+01 1.027931007804988184e+01 5.146139844096948579e+00 5.132100000000000328e+00 1.028347007787364298e+01 5.134519844033855307e+00 3.759999999999999887e-03 4.122370056477092426e+00 3.723759937477314708e+00 8.946329999999999671e+00 6.155060022106807693e+00 1.457589906648147249e+00 8.913479999999999848e+00 4.152330100014425263e+00 6.594349937022920827e+00 6.476980000000000182e+00 3.784290015735435109e+00 1.037499942604867886e+00 6.582989999999999675e+00 3.700730135832067003e+00 8.955949943872193231e+00 4.118549999999999933e+00 8.827050098269650036e+00 6.479309866122918038e+00 6.126299999999999635e+00 1.328590015585891404e+00 1.027639979849694685e+00 3.662030000000000118e+00 1.461450136010730594e+00 8.967729977834647315e+00 6.148729999999999585e+00 1.333580140482930831e+00 9.262599979774012837e+00 1.449750000000000094e+00 6.609680098504126633e+00 6.494769899753068287e+00 4.116880000000000095e+00 3.806360140525549163e+00 9.265409942270137478e+00 8.801880000000000592e+00 6.143790134131729808e+00 8.843839906819074059e+00 6.476650000000000240e+00 6.167410099941322166e+00 6.589529906460837694e+00 1.337530000000000108e+00 4.101880134222427365e+00 8.849819937788078406e+00 1.301449999999999996e+00 6.165340055944589892e+00 3.688649906492233566e+00 3.774309999999999832e+00 6.456770140717862816e+00 9.278089902072206741e+00 3.681869999999999976e+00 4.141800022032490425e+00 1.452689937182626512e+00 3.791490000000000027e+00 6.471200015660814486e+00 1.032579901853351911e+00 1.469419999999999948e+00 3.724150057947957393e+00 3.820739943516991755e+00 6.134979999999999656e+00 8.952820015331999670e+00 1.010899864215404342e+00 8.815089999999999648e+00 8.842620020609704312e+00 1.358879865886773119e+00 4.110579999999999679e+00 8.945020140641119610e+00 9.273029864333702577e+00 6.574160000000000004e+00 1.436000057709537314e+00 3.805019978220640642e+00 4.145640000000000214e+00 6.604380020091913828e+00 1.324739899833452750e+00 6.128339999999999677e+00 9.264640134210749167e+00 8.849049859486127545e+00 3.787329999999999863e+00 1.014720100325493979e+00 6.614859984610061083e+00 3.786659999999999915e+00 9.264210021922835381e+00 1.445459859492650656e+00 1.357329999999999925e+00 8.954120093270255154e+00 6.149679864195687351e+00 1.458320000000000061e+00 8.852330057918079476e+00 3.818769865739504610e+00 9.266780000000000683e+00 3.667250020306673797e+00 1.338899944379976503e+00 9.854300000000000281e-01 6.478510093541890669e+00 6.167589901742482006e+00 8.823090000000000543e+00 6.608980058043962380e+00 3.827069899763685612e+00 1.009509999999999907e+00 6.497650062739872112e+00 4.136689901452191620e+00 6.559840000000000337e+00 1.448960019812391531e+00 1.306309978024080776e+00 9.229699999999999349e+00 8.940790062960546791e+00 4.151239864397858526e+00 3.679949999999999832e+00 1.033500055917745408e+00 3.686879984325231341e+00 1.322349999999999914e+00 1.017370022233752724e+00 1.465959984569870089e+00 6.450540000000000163e+00 9.275520055565879218e+00 3.663679859321114840e+00 6.461909999999999599e+00 1.016340133716769678e+00 8.816479984585489760e+00 8.932489999999999597e+00 1.365660062411816256e+00 4.115059979287464920e+00 8.816990000000000549e+00 9.269470100351277608e+00 6.616559859412872946e+00 8.948059999999999903e+00 1.341960093399779064e+00 6.158219979646915476e+00 6.571760000000000268e+00 8.829550135948545986e+00 8.963629866085000231e+00 9.905699999999999505e-01 3.836230093719644518e+00 6.179309941817109575e+00 3.686209999999999987e+00 3.677650098282086333e+00 6.480129944222242422e+00 9.256019999999999470e+00 3.794270062527386411e+00 4.122679942453503443e+00 1.468439999999999968e+00 6.590400135844807217e+00 8.956789900045480479e+00 9.248469999999999303e+00 1.459940098129206332e+00 6.470049977857549983e+00 1.003840000000000066e+00