-7.150571858399999883e+02
-7.150372693699999900e+02
-7.149750873699999829e+02
-7.148799668399999518e+02
-7.147655507099999568e+02
-7.131262395100000049e+02
-7.131226561900000434e+02
-7.130870715099999870e+02
-7.130251376400000254e+02
-7.129466306799999984e+02
-7.119340063700000201e+02
-7.119280490099999952e+02
-7.119012544600000183e+02
-7.118581590200000164e+02
-7.118059374599999956e+02
-7.100925756000000320e+02
-7.101446432200000345e+02
-7.101872748700000102e+02
-7.102141090699999495e+02
-7.097814015699999572e+02
-7.111891635499999893e+02
-7.111728610899999694e+02
-7.111250406899999916e+02
-7.110541773800000556e+02
-7.109722943499999701e+02
-7.201198311699999977e+02
-7.201040405999999621e+02
-7.200577251099999785e+02
-7.199842907099999820e+02
-7.198902984400000378e+02
-7.197531039199999441e+02
-7.197455369499999733e+02
-7.197075768299999936e+02
-7.196423964299999625e+02
-7.195560798799999702e+02
-7.195873052399999779e+02
-7.195756909799999903e+02
-7.195320967300000348e+02
-7.194607849999999871e+02
-7.193691768500000308e+02
-7.194367079600000352e+02
-7.194280681999999842e+02
-7.193862515399999893e+02
-7.193154769300000453e+02
-7.192236692999999832e+02
-7.192015904500000261e+02
-7.191804786899999726e+02
-7.191416799800000490e+02
-7.190887759900000447e+02
-7.190263838600000099e+02
-7.160227296900000056e+02
-7.160203117199999951e+02
-7.159916295199999468e+02
-7.159399360200000046e+02
-7.158703318000000309e+02
-7.130815538000000515e+02
-7.130784211200000300e+02
-7.130607516999999689e+02
-7.130295235300000058e+02
-7.129870052500000384e+02
-7.145864935900000319e+02
-7.145695561999999654e+02
-7.145353509200000417e+02
-7.144865555899999663e+02
-7.144272862200000418e+02
-7.137617264299999533e+02
-7.137560981300000549e+02
-7.137302091000000246e+02
-7.136864327399999866e+02
-7.136287953500000185e+02
-7.141372787999999900e+02
-7.141306948300000386e+02
-7.141053411300000562e+02
-7.140630917900000441e+02
-7.140072612300000401e+02
