1.656368768616198428e-09 1.092109999999999886e-01 7.999999999999999638e-06 -1.074540000000303308e-01 -1.998370279095851598e-06 9.000000000000000228e-06 1.000000015166684552e-05 9.999999848333154418e-06 1.199770000000000003e-01 1.074559999999848275e-01 -1.001629751237516403e-06 3.999999999999999819e-06 -6.999999893833208771e-06 7.000000106166790172e-06 -1.199709999999999943e-01 -3.001656414268669601e-06 -1.092139999999544864e-01 9.999999999999999547e-07 -2.001656399101985049e-06 -1.092129999999696538e-01 -1.999999999999999909e-06 1.074590000000455042e-01 2.998370203262429835e-06 -1.999999999999999909e-06 5.999999954499946571e-06 -3.000000091000105968e-06 -1.199780000000000013e-01 -1.074570000000151654e-01 -9.983702335957986974e-07 -6.000000000000000152e-06 -6.000000060666737695e-06 -3.999999908999892657e-06 1.199729999999999963e-01 1.001656323268562953e-06 1.092079999999848172e-01 0.000000000000000000e+00 7.999999999999999638e-06 -1.213334750980174802e-13 5.000000000000000409e-06 -6.999999969666631123e-06 2.000000106166790187e-06 3.000000000000000076e-06 -6.999999999999999895e-06 1.061667907107652920e-13 3.000000000000000076e-06 -7.999999999999999638e-06 1.213334750980174802e-13 0.000000000000000000e+00 3.001656611435566617e-06 1.092269999999544855e-01 3.000000000000000076e-06 -1.074560000000303328e-01 -1.998370248762482826e-06 -7.999999999999999638e-06 -8.000000136500158687e-06 -8.999999878666523447e-06 1.199680000000000052e-01 1.074540000000151624e-01 9.983702790958518550e-07 -7.999999999999999638e-06 1.099999984833315501e-05 -1.000000016683352779e-05 -1.199640000000000012e-01 -1.656581102197619972e-09 -1.092249999999999888e-01 3.000000000000000076e-06 -3.001656581102197845e-06 -1.092249999999544835e-01 -3.999999999999999819e-06 1.074530000000455121e-01 2.998370294262536150e-06 3.999999999999999819e-06 -6.999999939333262352e-06 4.000000106166790096e-06 -1.199670000000000042e-01 -1.074589999999999990e-01 1.629796737569732661e-09 9.999999999999999547e-07 5.000000045500053990e-06 2.999999924166577723e-06 1.199599999999999972e-01 1.001656611435566284e-06 1.092269999999848223e-01 -9.999999999999999547e-07 -9.000000015166684190e-06 -9.999998634998402703e-07 -6.999999999999999895e-06 5.000000000000000409e-06 -7.583342193626092829e-14 -1.999999999999999909e-06 6.000000000000000152e-06 -9.100010632351311647e-14 -9.999999999999999547e-07 1.000000000000000082e-05 -1.516668438725218566e-13 5.000000000000000409e-06 1.267329973111440411e-01 -1.772870019221193805e-01 4.631799999999999806e-02 -1.267289973110682089e-01 1.772920019220587118e-01 4.631300000000000000e-02 1.267340026888104931e-01 1.772839980778653790e-01 -4.632000000000000006e-02 5.478599792715407868e-02 -1.366710008309219293e-01 1.554069999999999896e-01 -1.818209993173930394e-01 4.500700275762171271e-02 1.067250000000000004e-01 -1.818250006827586140e-01 -4.501699724231760652e-02 -1.067250000000000004e-01 -5.478900207280042178e-02 -1.366679991690325224e-01 -1.554069999999999896e-01 1.818190006825917970e-01 4.500599724240859911e-02 -1.067260000000000014e-01 -5.478099792718441746e-02 1.366690008308461268e-01 1.554159999999999986e-01 1.818229993172717218e-01 -4.501500275765205061e-02 1.067239999999999994e-01 5.478900207286108853e-02 1.366719991690324987e-01 -1.554109999999999936e-01 -1.267270026889469881e-01 -1.772929980779715531e-01 -4.631400000000000100e-02 -1.267279973111591906e-01 1.772860019220435512e-01 -4.631600000000000300e-02 1.267349973110681871e-01 -1.772920019221497223e-01 -4.631199999999999900e-02 -1.267300026888408260e-01 -1.772859980779260547e-01 4.631500000000000200e-02 -5.477999792715407962e-02 1.366710008308309188e-01 -1.554069999999999896e-01 1.267350026889469683e-01 1.772929980778502335e-01 4.631099999999999800e-02 -5.478200207281558320e-02 -1.366689991691386885e-01 1.554069999999999896e-01 -1.818149993173020507e-01 4.501300275753071511e-02 -1.067260000000000014e-01 5.477899792721474537e-02 -1.366670008308157880e-01 -1.554119999999999946e-01 -1.818240006826069843e-01 -4.500699724233277188e-02 1.067229999999999984e-01 5.477900207283075557e-02 1.366699991691841809e-01 1.554069999999999896e-01 1.818170006827282970e-01 4.501499724243893802e-02 1.067239999999999994e-01 1.818279993174082010e-01 -4.500600275772787678e-02 -1.067229999999999984e-01 1.267239973110682039e-01 -1.772920019219828835e-01 4.632000000000000006e-02 -1.267329973111743779e-01 1.772850019221193785e-01 4.632300000000000306e-02 1.267270026889621426e-01 1.772939980779715541e-01 -4.631300000000000000e-02 5.477499792707823945e-02 -1.366760008307550955e-01 1.554109999999999936e-01 -1.818229993172413850e-01 4.501700275765205261e-02 1.067219999999999974e-01 -1.818170006826373142e-01 -4.500899724243893896e-02 -1.067219999999999974e-01 -5.477800207292175816e-02 -1.366759991691993137e-01 -1.554079999999999906e-01 1.818210006827586378e-01 4.501699724237827327e-02 -1.067209999999999964e-01 -5.477499792709340787e-02 1.366750008307550945e-01 1.554069999999999896e-01 1.818189993173778829e-01 -4.500800275759138380e-02 1.067229999999999984e-01 5.477500207290658674e-02 1.366749991692448318e-01 -1.554079999999999906e-01 -1.267320026889166562e-01 -1.772909980778957229e-01 -4.631099999999999800e-02 -1.267319973110682119e-01 1.772920019221042309e-01 -4.631699999999999706e-02 1.267279973112047098e-01 -1.772830019220435482e-01 -4.632100000000000106e-02 -1.267340026889469951e-01 -1.772929980778653880e-01 4.631099999999999800e-02 -5.478299792710857735e-02 1.366740008308764409e-01 -1.554109999999999936e-01 1.267260026888863134e-01 1.772889980779867314e-01 4.631400000000000100e-02 -5.478800207287625595e-02 -1.366729991690476542e-01 1.554059999999999886e-01 -1.818269993173626808e-01 4.500900275771271830e-02 -1.067219999999999974e-01 5.478399792709340993e-02 -1.366750008308915965e-01 -1.554069999999999896e-01 -1.818160006827434783e-01 -4.501599724245410744e-02 1.067199999999999954e-01 5.478500207292175822e-02 1.366759991690931486e-01 1.554119999999999946e-01 1.818260006826069586e-01 4.500699724230243504e-02 1.067189999999999944e-01 1.818179993172565345e-01 -4.501600275757621644e-02 -1.067229999999999984e-01
2.766100310445346322e-02 2.046889995804743179e-01 8.097300000000000331e-02 -5.123699964425024872e-02 2.345600077709540654e-02 7.571999999999999738e-03 -1.223699989767038088e-02 6.747000185594716204e-03 1.719980000000000120e-01 1.159719991888250590e-01 -5.348400175891070835e-02 -1.396000000000000019e-02 6.296600090818105233e-02 5.987999904501454390e-02 -2.405490000000000128e-01 -2.774300155097548029e-02 -1.022619995792306696e-01 -7.382600000000000273e-02 8.350000958033952300e-03 6.316699987335817890e-02 -2.021099999999999980e-02 9.599500079264125518e-02 5.226199854407412998e-02 5.360000000000000181e-04 -8.665999834144723357e-02 1.093550013143448491e-01 -1.501220000000000054e-01 -1.643630003066096912e-01 -2.021599750715825233e-02 -1.132920000000000038e-01 -4.342998475869551921e-03 1.004920000658688917e-01 1.171809999999999935e-01 -5.852997965449955632e-03 1.341460000887705617e-01 5.112799999999999984e-02 -5.791200000850851154e-02 -5.609991216669736559e-04 -1.948099999999999832e-02 1.315039999674674775e-01 -2.145001994479663228e-03 -1.733300000000000118e-02 9.859000659068270153e-03 4.345499985047165253e-02 -3.072000000000000078e-02 2.213399919311722502e-02 -5.320100033569938325e-02 5.511300000000000227e-02 1.878700306113741114e-02 2.018329997150634936e-01 1.891999999999999932e-02 -1.723949992744561455e-01 4.783800261466054915e-02 2.043599999999999930e-02 -8.000999474201384715e-03 3.466800012134862996e-02 4.128600000000000325e-02 1.470840004617345320e-01 3.044399776922339027e-02 5.889799999999999897e-02 9.676799847462588811e-02 -1.005740014676496930e-01 -7.254599999999999937e-02 -2.358500114846684079e-02 -7.572299964229373126e-02 -5.188899999999999763e-02 -1.365000248873157566e-02 -1.640919997929747298e-01 -6.782000000000000528e-02 1.006050008757546910e-01 5.774199847415571046e-02 1.042870000000000047e-01 1.224400044271551670e-02 2.918999981429911197e-02 2.043100000000000124e-02 -7.867199947362506218e-02 3.470600119319338511e-02 4.558000000000000419e-03 -3.232599935661407964e-02 4.242100049027823505e-02 7.650099999999999956e-02 1.212900220901241312e-02 1.456489998160432620e-01 1.892100000000000032e-02 -4.770699889826171547e-02 7.264200072355699034e-02 5.513799999999999951e-02 9.815000115281968807e-03 7.600999851138992396e-03 1.711999999999999980e-03 -3.732000118224304986e-03 -7.794999943397933062e-03 -3.292400000000000188e-02 6.421700114282483107e-02 7.535099902604101840e-02 7.160999999999999831e-03 2.255519953313305515e-01 -3.078240034208759024e-01 -8.822499999999999787e-02 -1.203069976540172559e-01 1.546800018246582697e-01 1.450770000000000115e-01 3.287600190505689246e-02 1.256079995013800465e-01 -1.865290000000000004e-01 1.867069976458272662e-01 -1.552200028317261005e-01 9.887700000000000655e-02 -2.216869993171503572e-01 4.502300336225675825e-02 1.411959999999999882e-01 -1.373620017139415006e-01 -1.130069979166738875e-01 -1.753100000000000144e-02 4.092996856097993498e-03 -2.072900000620772065e-01 -9.307799999999999407e-02 1.266779991413836681e-01 -5.661200192128523767e-02 -2.312220000000000109e-01 -5.349499726459747140e-02 1.803560008113417323e-01 2.002720000000000056e-01 6.426399791711373544e-02 -1.373330009746717983e-01 1.097149999999999931e-01 8.270100252604160873e-02 1.665519987457000084e-01 -1.460009999999999919e-01 -9.041900228613500290e-02 -1.507339986286435340e-01 -1.507130000000000136e-01 -2.116869969747772751e-01 1.994650032105898807e-01 -3.815299999999999941e-02 2.711039965771827043e-01 -2.256800041117487665e-01 1.502940000000000109e-01 -1.631780019512697744e-01 -1.286549975251307376e-01 1.772529999999999939e-01 1.169200223467444302e-02 1.473409998226710982e-01 -1.494689999999999908e-01 7.785600233146822147e-02 1.537229988191825825e-01 7.637099999999999445e-02 -5.574600311086896215e-02 -2.051119991545179710e-01 5.335199999999999665e-02 -2.839310005530683023e-01 -3.646599569370812671e-02 -1.402990000000000070e-01 5.457999863756157061e-02 -8.983100082779761630e-02 -1.440099999999999991e-01 -1.393000024625538902e-01 -1.623659978872808440e-01 1.449400000000000133e-01 1.033570020527349032e-01 1.353449984324169575e-01 1.371370000000000089e-01 2.126300018735557129e-01 1.235309967751078847e-01 4.530800000000000105e-02 1.092240000911062769e-01 6.006998343434063678e-03 -8.498300000000000298e-02 1.372359968640301797e-01 -2.067670020814150744e-01 1.145909999999999984e-01 -9.375999876697889424e-02 8.129800142202830981e-02 1.580239999999999978e-01 1.507020024928114044e-01 1.643609977143503098e-01 -1.804489999999999983e-01 9.369399818219703580e-02 -1.198550014210273129e-01 1.036180000000000018e-01 -2.440340000783207675e-01 -5.163996298813341816e-03 6.133299999999999863e-02 -5.937600201355935220e-02 -1.327619990994629018e-01 -1.127700000000000057e-02 -4.230100316257219550e-02 -2.085209993584340726e-01 -2.081520000000000037e-01 1.330279992318529336e-01 -5.064700201759367998e-02 -1.825690000000000091e-01 -1.190879984014163034e-01 1.054010018061700971e-01 2.100009999999999932e-01 1.895980012862713282e-01 8.480899712442695193e-02 1.743200000000000027e-01 1.723590009521796251e-01 6.278099738588543977e-02 -1.084230000000000055e-01 -2.186840022570452902e-01 -1.488159966832887648e-01 3.958799999999999819e-02 -1.527859979338122565e-01 1.362320023172570171e-01 -5.955300000000000177e-02 1.175889996778747837e-01 -2.123900178343524764e-02 -7.169999999999999984e-02 -1.690340020481242156e-01 -1.350409974363146470e-01 1.629699999999999899e-02 -2.246339975416017931e-01 1.620920034069529558e-01 -1.677730000000000055e-01 1.659810012283194358e-01 8.098799748261854836e-02 -5.637000000000000344e-02 -9.387300176206539448e-02 -1.161799985762578258e-01 1.391900000000000082e-01 -1.724130000925319650e-01 -6.100997385066443505e-03 -7.400800000000000434e-02 -1.350890036018600193e-01 -2.374849979511477471e-01 -1.922409999999999952e-01 -9.878500152228010533e-02 -1.003699985017590668e-01 9.548399999999999943e-02 1.346090025471991525e-01 1.679469979584277683e-01 1.055240000000000067e-01 1.766790006369097499e-01 4.199399732036535743e-02 1.505009999999999959e-01 1.259179987581822147e-01 -8.187800190975855208e-02 -6.833400000000000585e-02
5.312100441166998921e-02 2.908789991943305231e-01 1.577169999999999961e-01 6.088000688279303872e-03 4.538099990766521902e-02 1.106000000000000039e-02 -2.548399982094212354e-02 1.180600038650778290e-02 2.173299999999999954e-01 1.207629984015072960e-01 -1.053950018315742976e-01 -2.868199999999999916e-02 1.300780018034249363e-01 1.189069980271480198e-01 -3.499050000000000216e-01 -5.767400141003148351e-02 -9.296899912527663290e-02 -1.465359999999999996e-01 2.016200357507567584e-02 2.357189996942092858e-01 -3.709799999999999903e-02 8.025600159524702570e-02 1.051809987827825588e-01 3.959999999999999762e-04 -1.714679967174745079e-01 2.164300026006010236e-01 -1.777330000000000021e-01 -2.145910006177845497e-01 -4.073299674536601939e-02 -2.228620000000000045e-01 -8.431997045423715240e-03 1.948070001278854602e-01 1.058950000000000030e-01 -1.105999767100394535e-02 1.535600001677435156e-01 1.009239999999999998e-01 -1.139620000279066986e-01 -1.839998271574313626e-03 -3.878299999999999803e-02 2.593339999170382604e-01 -5.470003933236928031e-03 -3.149600000000000316e-02 2.001300129825301505e-02 8.559899969646912743e-02 -6.060999999999999721e-02 4.422699842145148830e-02 -1.040800006707769398e-01 1.073490000000000000e-01 3.905700436515376767e-02 2.878119994076347443e-01 3.678000000000000019e-02 -2.340669985402976383e-01 9.624400355002030172e-02 3.894399999999999945e-02 -1.623999894543010081e-02 6.953200024630694365e-02 -3.905700000000000144e-02 1.769950008932267282e-01 5.889399731557268952e-02 1.132959999999999939e-01 1.903119969686954682e-01 -1.998660028864019944e-01 -2.121500000000000122e-02 -4.776200058966552364e-02 -3.887899927560881097e-02 -1.006449999999999984e-01 -2.190200316079769435e-02 -2.084039996678192508e-01 -1.338399999999999868e-01 9.619500183151363792e-02 1.207589985410407879e-01 2.102529999999999955e-01 2.932200089051187342e-02 5.871499955528247661e-02 1.658489999999999964e-01 -4.888399897508096531e-02 6.757700074140818303e-02 8.035000000000000475e-03 -6.399499873505301584e-02 8.340300097059195894e-02 3.299099999999999949e-02 2.127500267814829565e-02 1.765809996773287371e-01 3.432400000000000034e-02 -8.880799782015311172e-02 1.437260013469228714e-01 1.102770000000000000e-01 1.835400021997759049e-02 1.450399972163067194e-02 3.645999999999999935e-03 -7.274000227621599604e-03 -1.500799988967753580e-02 -6.363399999999999612e-02 1.266550022829196487e-01 1.505219980790635514e-01 1.660899999999999876e-02 3.103559935749375387e-01 -4.236300047070714614e-01 -2.106719999999999982e-01 -1.092389980521578929e-01 1.284290016567933845e-01 2.383810000000000096e-01 -6.152499896190112560e-02 6.844600093313024658e-02 -3.208670000000000133e-01 3.103889974286554998e-01 -1.695390047075719664e-01 4.592899999999999761e-02 -2.569009993083233301e-01 4.560500389633637824e-02 1.717700000000000060e-01 -8.905900269407331094e-02 -1.776309986492702331e-01 7.441599999999999604e-02 6.306699586850417205e-02 -2.724060009565172358e-01 -2.814300000000000135e-02 6.254399758813318499e-02 -1.590240009485850703e-01 -3.533689999999999887e-01 -5.234299669813697459e-02 2.177050007938697296e-01 2.374560000000000004e-01 -5.007300336783809813e-02 -2.220549992405585760e-01 1.070809999999999956e-01 1.090360028814880283e-01 1.899879983462853528e-01 -1.326279999999999959e-01 -5.029700183618498327e-02 -1.210669992371612574e-01 -2.498710000000000098e-01 -2.888799967401942115e-01 2.149320043813517656e-01 -3.148900000000000310e-02 4.057879961064391194e-01 -2.567180061544584446e-01 3.323530000000000095e-01 -1.938410012265146254e-01 -8.086899706007472100e-02 2.979930000000000079e-01 7.669500233137722944e-02 1.537169988367911022e-01 -1.415829999999999866e-01 2.461100191251890112e-02 1.260999996267326839e-01 1.057939999999999992e-01 -5.290300407263392318e-02 -2.685249991976368378e-01 -4.909199999999999675e-02 -3.772160016303275909e-01 -1.074939942788839808e-01 -1.672130000000000005e-01 5.369899938129027439e-02 -4.079400081443577269e-02 -1.302979999999999972e-01 -9.609300416694036007e-02 -2.747429985425877685e-01 1.790950000000000042e-01 1.495100019851218209e-01 1.308869977324289835e-01 1.152549999999999963e-01 2.364840029739441463e-01 1.960839964133217761e-01 -1.745199999999999876e-02 3.952000080745911303e-02 5.323899940061262853e-02 -6.131600000000000245e-02 1.444309964668147039e-01 -2.329570021905393584e-01 1.804129999999999900e-01 -5.657200016686386029e-02 -1.100199914199032937e-02 2.616890000000000049e-01 1.727160022814485107e-01 1.504249973804709095e-01 -3.069709999999999939e-01 1.307639985057782450e-01 -9.852000198325630564e-02 5.088499999999999968e-02 -2.976560008096127419e-01 -5.338099548554538221e-02 1.013499999999999991e-02 6.489899664394641055e-02 -2.212780009843026141e-01 8.199299999999999644e-02 -3.262800413008531963e-02 -2.723129995051413732e-01 -2.556419999999999804e-01 8.030699780481960481e-02 -1.447370012179909071e-01 -2.528460000000000152e-01 -1.805499989000210470e-01 7.252600273834484967e-02 2.612169999999999770e-01 1.873080031082147989e-01 2.049369971591586681e-01 2.357700000000000073e-01 2.814899998033336126e-01 -1.296700426926998551e-02 -6.023099999999999982e-02 -3.068740017441838330e-01 -1.150009953457388906e-01 1.218120000000000036e-01 -1.754969985987803460e-01 9.238800266170758835e-02 -7.001799999999999691e-02 1.020550019398947794e-01 1.279049984521639927e-01 -9.529100000000000070e-02 -2.074850013567964280e-01 -8.945899685314047389e-02 -1.318700000000000080e-02 -3.869509971868075326e-01 1.854850058687636805e-01 -1.838150000000000062e-01 2.018959997427881847e-01 -1.695900306209290748e-02 -1.564240000000000075e-01 -1.315150014072104800e-01 -9.278299800535348696e-02 1.229630000000000029e-01 -1.575990007963570805e-01 -5.250699760974569807e-02 -4.222299999999999665e-02 -3.150970050013962021e-01 -3.297619952210231742e-01 -2.163470000000000115e-01 -1.508600231907704370e-02 -1.529059997711953445e-01 7.833500000000000185e-02 2.070950029525591152e-01 1.946739968590554815e-01 5.681100000000000039e-02 1.656830005921831883e-01 3.904499748713823049e-02 1.891100000000000003e-01 6.992299821921892089e-02 -1.174140010605000672e-01 -2.719299999999999842e-02
7.549500558801319761e-02 3.684399988549910687e-01 2.304029999999999967e-01 6.238400097805398004e-02 6.448699905384154552e-02 9.520000000000000684e-03 -3.940999979074525511e-02 1.379700059771903076e-02 2.547320000000000140e-01 1.218999976636784277e-01 -1.540430018488188058e-01 -4.329700000000000215e-02 1.968780026568542618e-01 1.751769970140134858e-01 -4.430060000000000109e-01 -8.748100124642846365e-02 -8.218199867320327701e-02 -2.143849999999999922e-01 3.467000608902944675e-02 4.014739994741710061e-01 -4.955899999999999889e-02 6.138400236193809062e-02 1.557319990690082256e-01 -1.453000000000000081e-03 -2.520779951940265717e-01 3.168770038231874531e-01 -2.017039999999999944e-01 -2.578350009485396166e-01 -6.254099608949791056e-02 -3.264650000000000052e-01 -1.183499573420318182e-02 2.812610001794976222e-01 8.681600000000000428e-02 -1.580499746543470585e-02 1.671140002397094315e-01 1.478549999999999864e-01 -1.662900000772742637e-01 -5.094997477932051988e-03 -5.761100000000000249e-02 3.779579998365031335e-01 -1.078000573236969489e-02 -4.164400000000000046e-02 3.081100189648771845e-02 1.250429995326992338e-01 -8.846800000000000497e-02 6.566799768042246022e-02 -1.529390009959658014e-01 1.544840000000000102e-01 6.203800554349898216e-02 3.655049990590891751e-01 5.075799999999999756e-02 -2.915179978029389107e-01 1.448610044213614612e-01 5.382200000000000178e-02 -2.335599844559685043e-02 1.024880003542330692e-01 -1.177119999999999972e-01 1.971810012958870040e-01 8.544299700941800080e-02 1.632810000000000095e-01 2.769689955209748145e-01 -2.953200042007013693e-01 3.002799999999999914e-02 -7.120499999723967077e-02 1.820010799437617828e-04 -1.437360000000000027e-01 -2.459000365652077441e-02 -2.410889996270512148e-01 -1.959339999999999971e-01 9.585000281373845521e-02 1.855209985462732691e-01 3.106019999999999892e-01 5.013600132104854140e-02 8.710199923960310064e-02 3.078350000000000253e-01 -1.913699853275978649e-02 9.674100029024482184e-02 1.006400000000000003e-02 -9.252499815993234233e-02 1.213230014032974646e-01 -6.620000000000000016e-03 2.555000304225488877e-02 2.005879996124911857e-01 4.526600000000000068e-02 -1.227599967968569239e-01 2.111960018618621315e-01 1.625769999999999993e-01 2.456700032141237444e-02 2.119199962740005855e-02 5.755999999999999832e-03 -8.748000320305208272e-03 -2.111899986732183876e-02 -9.110699999999999354e-02 1.846790033923626506e-01 2.236719971990318856e-01 2.711900000000000074e-02 3.795659920021675071e-01 -5.273290057567576739e-01 -3.170580000000000065e-01 -9.296699850514124341e-02 9.856200141000112658e-02 3.246129999999999849e-01 -1.554919998688384930e-01 8.648002358298085765e-03 -4.488579999999999792e-01 4.221939972740918479e-01 -1.797300064032831268e-01 -5.190000000000000169e-03 -2.837769993040918370e-01 4.588400430395619262e-02 1.989420000000000077e-01 -4.332800353244212893e-02 -2.329079993428578854e-01 1.586049999999999960e-01 1.211369949739124624e-01 -3.313900018372465950e-01 3.670099999999999751e-02 -4.815003901007724151e-03 -2.572089999269723815e-01 -4.678599999999999981e-01 -5.206899623622043144e-02 2.481610007897140646e-01 2.660509999999999819e-01 -1.640410046258690691e-01 -3.050019975120418780e-01 9.725399999999999323e-02 1.306670031159649914e-01 2.054479980182148113e-01 -1.155309999999999948e-01 -8.312001345284904252e-03 -8.869999987393450969e-02 -3.418649999999999745e-01 -3.567399966099427111e-01 2.235200054105629663e-01 -2.570300000000000015e-02 5.236129957962956105e-01 -2.771670079414730314e-01 4.984480000000000022e-01 -2.152690004864562245e-01 -3.207399673508300880e-02 4.128890000000000060e-01 1.374120023363215592e-01 1.540429979159155527e-01 -1.296799999999999897e-01 -2.982899852500961110e-02 9.725200045240701974e-02 1.313769999999999938e-01 -4.430000493308543230e-02 -3.252579993281158321e-01 -1.483170000000000044e-01 -4.590700025661877959e-01 -1.691989930374301621e-01 -1.839469999999999994e-01 5.397800012896231819e-02 8.502999181332708198e-03 -1.148050000000000043e-01 -5.496800577808208521e-02 -3.809719991663176319e-01 2.094090000000000118e-01 1.919810018737831969e-01 1.235459970882847591e-01 9.489799999999999625e-02 2.565140039419123164e-01 2.599059961095330773e-01 -8.010100000000000553e-02 -3.207399850025757782e-02 9.888400048645622220e-02 -3.670199999999999851e-02 1.504249961211963083e-01 -2.557450022814484192e-01 2.399580000000000046e-01 -1.908800152452478152e-02 -1.005179997104983097e-01 3.566679999999999851e-01 1.894110020608035794e-01 1.358769971272631161e-01 -4.278239999999999821e-01 1.600699988464978074e-01 -7.605500242773115260e-02 -2.461000000000000080e-03 -3.456860015416328147e-01 -1.016459947570895334e-01 -4.366899999999999948e-02 1.825159954355560221e-01 -3.009520027681625298e-01 1.744330000000000047e-01 -2.792300498064815423e-02 -3.283939995765006170e-01 -2.976449999999999929e-01 2.585099653156127872e-02 -2.286880003920739313e-01 -3.146900000000000253e-01 -2.382889993945004614e-01 3.992300361405404924e-02 3.032599999999999740e-01 1.753480047771870942e-01 3.149789973405521804e-01 2.875750000000000250e-01 3.804659986819090012e-01 -8.690700577040773311e-02 -7.822000000000000827e-03 -3.853090011650895375e-01 -7.681899415613999138e-02 1.953590000000000049e-01 -1.917219993472865647e-01 4.303600290778705761e-02 -7.727900000000000047e-02 8.301800412885682046e-02 2.722319987408921005e-01 -1.176610000000000017e-01 -2.352270006000546920e-01 -3.956399643238632524e-02 -4.347000000000000169e-02 -5.378909969546056269e-01 2.007950081580230084e-01 -1.978320000000000078e-01 2.363179982610182917e-01 -1.146580035841605061e-01 -2.484689999999999954e-01 -1.632380010266480386e-01 -6.769099752422076677e-02 1.083130000000000065e-01 -1.391000014275641794e-01 -9.412499789031418540e-02 -7.556000000000000216e-03 -4.763820062497811647e-01 -4.120729927748645327e-01 -2.301960000000000117e-01 6.595599700298733492e-02 -1.976050010003338187e-01 5.728099999999999858e-02 2.771900032322024421e-01 2.131119957959467237e-01 3.409000000000000138e-03 1.501390005192769217e-01 3.423799772288916438e-02 2.212349999999999872e-01 1.155199781182660902e-02 -1.442750001752055033e-01 1.169899999999999933e-02